MP2 water Coord cent Oxygen                                             
SP        RMP2-Full                                                   Gen                 
Number of atoms                            I                3
Info1-9                                    I   N=           9
          81          80           0           0           0         111
           1           2           2
Charge                                     I                0
Multiplicity                               I                1
Number of electrons                        I               10
Number of alpha electrons                  I                5
Number of beta electrons                   I                5
Number of basis functions                  I              105
Number of independent functions            I              105
Number of point charges in /Mol/           I                0
Number of translation vectors              I                0
Atomic numbers                             I   N=           3
           8           1           1
Nuclear charges                            R   N=           3
  8.00000000E+00  1.00000000E+00  1.00000000E+00
Current cartesian coordinates              R   N=           9
  0.00000000E+00  0.00000000E+00  0.00000000E+00  1.46801223E+00  0.00000000E+00
 -1.05681759E+00 -1.46801223E+00  0.00000000E+00 -1.05681759E+00
Force Field                                I                0
Int Atom Types                             I   N=           3
           0           0           0
MM charges                                 R   N=           3
  0.00000000E+00  0.00000000E+00  0.00000000E+00
Integer atomic weights                     I   N=           3
          16           1           1
Real atomic weights                        R   N=           3
  1.59949146E+01  1.00782504E+00  1.00782504E+00
Atom fragment info                         I   N=           3
           0           0           0
Atom residue num                           I   N=           3
           0           0           0
Nuclear spins                              I   N=           3
           0           1           1
Nuclear ZEff                               R   N=           3
 -5.60000000E+00 -1.00000000E+00 -1.00000000E+00
Nuclear QMom                               R   N=           3
  0.00000000E+00  0.00000000E+00  0.00000000E+00
Nuclear GFac                               R   N=           3
  0.00000000E+00  2.79284600E+00  2.79284600E+00
MicOpt                                     I   N=           3
          -1          -1          -1
Number of contracted shells                I               32
Number of primitive shells                 I               52
Pure/Cartesian d shells                    I                1
Pure/Cartesian f shells                    I                1
Highest angular momentum                   I                3
Largest degree of contraction              I                8
Shell types                                I   N=          32
           0           0           0           0           0           1
           1           1           1           2           2           2
           3           3           0           0           0           0
           1           1           1           2           2           0
           0           0           0           1           1           1
           2           2
Number of primitives per shell             I   N=          32
           8           8           1           1           1           3
           1           1           1           1           1           1
           1           1           3           1           1           1
           1           1           1           1           1           3
           1           1           1           1           1           1
           1           1
Shell to atom map                          I   N=          32
           1           1           1           1           1           1
           1           1           1           1           1           1
           1           1           2           2           2           2
           2           2           2           2           2           3
           3           3           3           3           3           3
           3           3
Primitive exponents                        R   N=          52
  1.53300000E+04  2.29900000E+03  5.22400000E+02  1.47300000E+02  4.75500000E+01
  1.67600000E+01  6.20700000E+00  6.88200000E-01  1.53300000E+04  2.29900000E+03
  5.22400000E+02  1.47300000E+02  4.75500000E+01  1.67600000E+01  6.20700000E+00
  6.88200000E-01  1.75200000E+00  2.38400000E-01  7.37600000E-02  3.44600000E+01
  7.74900000E+00  2.28000000E+00  7.15600000E-01  2.14000000E-01  5.97400000E-02
  2.31400000E+00  6.45000000E-01  2.14000000E-01  1.42800000E+00  5.00000000E-01
  3.38700000E+01  5.09500000E+00  1.15900000E+00  3.25800000E-01  1.02700000E-01
  2.52600000E-02  1.40700000E+00  3.88000000E-01  1.02000000E-01  1.05700000E+00
  2.47000000E-01  3.38700000E+01  5.09500000E+00  1.15900000E+00  3.25800000E-01
  1.02700000E-01  2.52600000E-02  1.40700000E+00  3.88000000E-01  1.02000000E-01
  1.05700000E+00  2.47000000E-01
Contraction coefficients                   R   N=          52
  5.20198307E-04  4.02334478E-03  2.07290833E-02  8.10823271E-02  2.36226352E-01
  4.43518209E-01  3.58670589E-01 -8.34979724E-03 -1.97236012E-04 -1.53501070E-03
 -7.95118391E-03 -3.21134529E-02 -1.00269643E-01 -2.34047112E-01 -3.01410928E-01
  1.03491965E+00  1.00000000E+00  1.00000000E+00  1.00000000E+00  4.11634896E-02
  2.57762836E-01  8.02419274E-01  1.00000000E+00  1.00000000E+00  1.00000000E+00
  1.00000000E+00  1.00000000E+00  1.00000000E+00  1.00000000E+00  1.00000000E+00
  2.54948632E-02  1.90362766E-01  8.52162022E-01  1.00000000E+00  1.00000000E+00
  1.00000000E+00  1.00000000E+00  1.00000000E+00  1.00000000E+00  1.00000000E+00
  1.00000000E+00  2.54948632E-02  1.90362766E-01  8.52162022E-01  1.00000000E+00
  1.00000000E+00  1.00000000E+00  1.00000000E+00  1.00000000E+00  1.00000000E+00
  1.00000000E+00  1.00000000E+00
Coordinates of each shell                  R   N=          96
  0.00000000E+00  0.00000000E+00  0.00000000E+00  0.00000000E+00  0.00000000E+00
  0.00000000E+00  0.00000000E+00  0.00000000E+00  0.00000000E+00  0.00000000E+00
  0.00000000E+00  0.00000000E+00  0.00000000E+00  0.00000000E+00  0.00000000E+00
  0.00000000E+00  0.00000000E+00  0.00000000E+00  0.00000000E+00  0.00000000E+00
  0.00000000E+00  0.00000000E+00  0.00000000E+00  0.00000000E+00  0.00000000E+00
  0.00000000E+00  0.00000000E+00  0.00000000E+00  0.00000000E+00  0.00000000E+00
  0.00000000E+00  0.00000000E+00  0.00000000E+00  0.00000000E+00  0.00000000E+00
  0.00000000E+00  0.00000000E+00  0.00000000E+00  0.00000000E+00  0.00000000E+00
  0.00000000E+00  0.00000000E+00  1.46801223E+00  0.00000000E+00 -1.05681759E+00
  1.46801223E+00  0.00000000E+00 -1.05681759E+00  1.46801223E+00  0.00000000E+00
 -1.05681759E+00  1.46801223E+00  0.00000000E+00 -1.05681759E+00  1.46801223E+00
  0.00000000E+00 -1.05681759E+00  1.46801223E+00  0.00000000E+00 -1.05681759E+00
  1.46801223E+00  0.00000000E+00 -1.05681759E+00  1.46801223E+00  0.00000000E+00
 -1.05681759E+00  1.46801223E+00  0.00000000E+00 -1.05681759E+00 -1.46801223E+00
  0.00000000E+00 -1.05681759E+00 -1.46801223E+00  0.00000000E+00 -1.05681759E+00
 -1.46801223E+00  0.00000000E+00 -1.05681759E+00 -1.46801223E+00  0.00000000E+00
 -1.05681759E+00 -1.46801223E+00  0.00000000E+00 -1.05681759E+00 -1.46801223E+00
  0.00000000E+00 -1.05681759E+00 -1.46801223E+00  0.00000000E+00 -1.05681759E+00
 -1.46801223E+00  0.00000000E+00 -1.05681759E+00 -1.46801223E+00  0.00000000E+00
 -1.05681759E+00
Constraint Structure                       R   N=           9
  0.00000000E+00  0.00000000E+00  0.00000000E+00  1.46801223E+00  0.00000000E+00
 -1.05681759E+00 -1.46801223E+00  0.00000000E+00 -1.05681759E+00
Num ILSW                                   I              100
ILSW                                       I   N=         100
           0           1           0           0           2           0
           0           0           0           0           0          -1
           0           0           0           1           0           0
           0           0           0           0           0           0
           1           1           0           0           0           0
           0           0      100000           0          -1           0
           0           0           0           0           0           0
           0           0           0           1           0           0
           0           0           1           0           0           0
           0           0           4          40           0           0
           0           0           0           0           0           0
           0           0           0           0           0           0
           0           0           0           0           0           0
           0           0           0           0           0           0
           0           0           0           0           0           0
           0           0           0           0           0           0
           0           0           0           0
Num RLSW                                   I               40
RLSW                                       R   N=          40
  1.00000000E+00  1.00000000E+00  1.00000000E+00  1.00000000E+00  1.00000000E+00
  0.00000000E+00  0.00000000E+00  1.00000000E+00  0.00000000E+00  0.00000000E+00
  0.00000000E+00  0.00000000E+00  1.00000000E+00  0.00000000E+00  0.00000000E+00
  0.00000000E+00  0.00000000E+00  1.00000000E+00  0.00000000E+00  0.00000000E+00
  0.00000000E+00  0.00000000E+00  1.00000000E+00  0.00000000E+00  0.00000000E+00
  0.00000000E+00  0.00000000E+00  1.00000000E+00  0.00000000E+00  0.00000000E+00
  0.00000000E+00  0.00000000E+00  0.00000000E+00  0.00000000E+00  0.00000000E+00
  0.00000000E+00  0.00000000E+00  0.00000000E+00  1.00000000E+00  1.00000000E+00
MxBond                                     I                2
NBond                                      I   N=           3
           2           1           1
IBond                                      I   N=           6
           2           3           1           0           1           0
RBond                                      R   N=           6
  1.00000000E+00  1.00000000E+00  1.00000000E+00  0.00000000E+00  1.00000000E+00
  0.00000000E+00
Virial Ratio                               R      2.001154991816567E+00
SCF Energy                                 R     -7.606099033454825E+01
MP2 Energy                                 R     -7.635149047122455E+01
Total Energy                               R     -7.635149047122455E+01
Post-SCF wavefunction norm                 R      1.031391726370013E+00
RMS Density                                R      2.293842282627011E-09
External E-field                           R   N=          35
  0.00000000E+00  0.00000000E+00  0.00000000E+00  0.00000000E+00  0.00000000E+00
  0.00000000E+00  0.00000000E+00  0.00000000E+00  0.00000000E+00  0.00000000E+00
  0.00000000E+00  0.00000000E+00  0.00000000E+00  0.00000000E+00  0.00000000E+00
  0.00000000E+00  0.00000000E+00  0.00000000E+00  0.00000000E+00  0.00000000E+00
  0.00000000E+00  0.00000000E+00  0.00000000E+00  0.00000000E+00  0.00000000E+00
  0.00000000E+00  0.00000000E+00  0.00000000E+00  0.00000000E+00  0.00000000E+00
  0.00000000E+00  0.00000000E+00  0.00000000E+00  0.00000000E+00  0.00000000E+00
IOpCl                                      I                0
IROHF                                      I                0
Alpha Orbital Energies                     R   N=         105
 -2.05633446E+01 -1.35042703E+00 -7.25208235E-01 -5.77042730E-01 -5.09114985E-01
  2.95553943E-02  4.73716394E-02  1.28194617E-01  1.54162459E-01  1.69208225E-01
  1.79836077E-01  2.14922367E-01  2.39588830E-01  2.63769141E-01  2.85822821E-01
  2.97291703E-01  3.64988222E-01  4.12291172E-01  4.61703819E-01  5.24670844E-01
  5.43886652E-01  6.75483884E-01  7.02046049E-01  7.11015169E-01  7.19335035E-01
  7.64306127E-01  7.79163178E-01  7.97509394E-01  8.56825732E-01  9.20624286E-01
  9.24922725E-01  9.44404640E-01  1.00173333E+00  1.00598964E+00  1.04036312E+00
  1.07522306E+00  1.10721048E+00  1.15809786E+00  1.17265742E+00  1.18923138E+00
  1.24590445E+00  1.26477568E+00  1.51467943E+00  1.58849768E+00  1.59550025E+00
  1.72391022E+00  1.78423467E+00  1.83602697E+00  2.05769790E+00  2.06624761E+00
  2.26968572E+00  2.28733187E+00  2.31868030E+00  2.41375257E+00  2.41988454E+00
  2.46584057E+00  2.61827391E+00  2.63293734E+00  2.76511820E+00  2.81486797E+00
  2.81977075E+00  2.88389228E+00  3.03042667E+00  3.09110255E+00  3.92905838E+00
  3.94588815E+00  4.00675104E+00  4.15571920E+00  4.24065265E+00  4.24224960E+00
  4.33374981E+00  4.38201373E+00  4.38493662E+00  4.45033565E+00  4.54155526E+00
  4.92291299E+00  5.03447388E+00  5.07492899E+00  5.17275087E+00  5.23641843E+00
  5.50761431E+00  5.67720169E+00  5.73401092E+00  5.96928167E+00  6.10952991E+00
  6.26327070E+00  6.70894683E+00  6.84603566E+00  6.86682334E+00  7.04189602E+00
  7.14723651E+00  7.29159060E+00  7.30375167E+00  7.36489712E+00  7.46936851E+00
  7.50668717E+00  8.08180614E+00  8.69318268E+00  8.98150213E+00  9.63031234E+00
  1.35518529E+01  1.48430983E+01  1.55412296E+01  1.68930024E+01  1.76373208E+01
Alpha MO coefficients                      R   N=       11025
  9.71911098E-01 -9.26499495E-03  4.92084000E-02 -1.58111122E-02 -3.15932357E-03
  1.99419510E-15 -3.34065232E-15 -2.82205206E-03 -8.64547051E-15  1.81022455E-14
  5.72972105E-03  2.55176112E-13  6.00989111E-15  3.41939577E-03 -5.55898185E-14
  3.92325309E-16  1.67222614E-04  2.69769457E-03  2.71010648E-03  2.68402860E-03
  1.21168351E-16 -5.62405289E-16  1.38611885E-16  7.88520522E-03  8.26340591E-03
  8.05146684E-03 -8.53232934E-16 -1.61463091E-14 -5.01338760E-16  2.09249096E-03
  2.91006630E-03  2.40607650E-03 -1.05821685E-15 -1.10477652E-13 -1.14043838E-15
  9.23843688E-15 -8.74211906E-15 -2.46230825E-03  4.64724319E-15 -3.63401359E-15
 -1.15119920E-03  4.53507193E-15 -3.80510905E-15 -1.11107689E-03 -4.40088880E-17
 -5.17055417E-16 -4.72962126E-15 -2.68405773E-03 -9.73455154E-15 -1.31290897E-15
 -8.44904864E-04  5.05182313E-15 -1.84167602E-15 -1.29965687E-03  5.68194209E-16
  4.05015176E-04  2.82635510E-04  4.94387745E-04  1.73940142E-04 -2.56592308E-04
 -3.11608354E-16  1.63731184E-04  5.13688821E-04  2.53583673E-16 -3.41511265E-04
  1.56655504E-04 -9.94139021E-16 -2.23354708E-04  6.34233755E-05  3.97802578E-05
 -2.49362503E-05 -6.55096571E-17  6.64539528E-05  4.72116362E-17 -2.42903028E-04
  2.16923154E-04  7.08934165E-05 -1.06043042E-16  3.06619742E-04 -1.54042512E-16
  4.05015176E-04  2.82635511E-04  4.94387744E-04  1.73940142E-04  2.56592308E-04
 -1.88838027E-16  1.63731184E-04 -5.13688821E-04 -3.08797684E-15 -3.41511265E-04
 -1.56655504E-04 -1.80478610E-15 -2.23354708E-04  6.34233755E-05  3.97802578E-05
 -2.49362503E-05 -6.23000478E-16 -6.64539528E-05 -4.73076971E-16 -2.42903028E-04
  2.16923154E-04  7.08934166E-05 -7.52178898E-16 -3.06619742E-04 -7.47017174E-16
 -1.24407397E-02  4.97335585E-01  1.29430093E-01  2.74115145E-01  1.51606713E-02
  7.31703702E-15 -3.33458149E-16 -4.40756949E-02 -1.71051407E-13  8.48975490E-16
 -4.86225204E-02 -5.59759713E-14 -2.28672696E-15 -1.14896316E-02  2.21809731E-13
 -8.80800384E-16  6.69441541E-04  4.70379321E-03 -2.31255871E-03  2.12048878E-03
 -1.07601561E-16 -2.29625674E-16 -1.58363801E-17 -4.75895644E-04 -1.00215701E-02
 -2.22949741E-03  8.91107914E-16  5.95556244E-14  1.47207261E-16 -8.64480438E-03
 -1.70214928E-04 -3.88496971E-03  3.76167057E-15  5.28694964E-14  1.30815680E-15
  3.41801611E-15 -8.06754618E-16 -2.41749520E-03  5.01040443E-15 -1.76009029E-16
 -4.19405140E-03 -6.81937473E-16 -2.75688927E-16 -3.66878120E-05 -1.16311099E-16
 -1.13313406E-13  2.54842062E-16  2.29848138E-03 -3.48890226E-14 -6.23377146E-16
  3.32811022E-03 -4.17714584E-14 -5.29386205E-16  1.26860234E-03 -9.82173542E-16
  8.98587741E-02  8.52111941E-02  6.20332048E-03 -9.44404256E-04 -1.16515766E-02
  5.80082510E-17  7.70104386E-03 -1.48171928E-02 -1.89603434E-15  8.94102768E-03
  6.60455519E-04 -9.93321905E-16 -8.03996334E-04  2.44973308E-03 -3.51912736E-04
  9.77416382E-04  2.99683153E-16 -2.50413857E-03 -1.77199408E-16 -2.48076169E-04
 -1.83402669E-03 -1.89855597E-03  4.53746250E-16 -3.78113801E-04 -1.09009274E-15
  8.98587741E-02  8.52111941E-02  6.20332048E-03 -9.44404256E-04  1.16515766E-02
 -1.32275172E-16  7.70104386E-03  1.48171928E-02  4.13437913E-15  8.94102768E-03
 -6.60455520E-04  3.26820304E-15 -8.03996334E-04  2.44973308E-03 -3.51912736E-04
  9.77416382E-04  4.36342788E-16  2.50413857E-03  2.14694438E-16 -2.48076170E-04
 -1.83402669E-03 -1.89855597E-03  1.44979070E-15  3.78113801E-04  1.38987539E-15
  2.45538074E-14  4.76720541E-14  1.30381525E-13  3.37596932E-12  4.40622268E-12
  2.89757092E-01 -9.70520093E-16  1.96414355E-14  3.07675365E-01  3.42254229E-15
 -3.26910028E-13  1.57846368E-01  4.86849137E-16 -1.42238069E-12  1.71589996E-03
 -8.44588912E-16 -6.84027947E-13  4.28433937E-15  3.09898578E-14  1.28638077E-14
  3.64488578E-17 -1.25853904E-02  2.71814043E-17  3.70800266E-13  2.77018236E-14
  2.31667490E-13 -1.76565970E-16 -2.28190327E-02 -1.20637694E-16  7.28624029E-13
 -3.44340796E-14  4.49546526E-13  1.42161093E-15 -8.33452354E-03  3.23867835E-16
  1.87164778E-02 -1.71216797E-15  2.18902497E-14  4.29426384E-03 -8.66703271E-16
  4.80416794E-15  6.89341205E-03 -8.98212780E-16  5.41363609E-15  2.44253871E-17
  1.26989203E-02 -1.44330863E-15 -1.24812713E-13  3.08604651E-03 -1.04361521E-15
 -2.21660871E-13  7.17490102E-03 -2.38999376E-16  2.07995700E-15 -1.59720348E-16
  1.43683252E-01  1.92968484E-01  6.84810458E-02 -2.45833482E-03 -1.05639209E-02
 -2.54955466E-16  1.24991765E-02 -1.66403054E-02  3.83997241E-16  2.25119169E-02
  6.30816289E-04 -6.01271277E-16  3.64810717E-03  3.25989083E-03 -1.90450426E-03
  2.82260469E-03  1.03797668E-16 -5.66636411E-03  5.36187993E-16 -4.22030965E-03
 -4.59903393E-03 -1.07794567E-03  5.30847208E-17 -2.84577848E-03 -5.72485939E-16
 -1.43683252E-01 -1.92968484E-01 -6.84810458E-02  2.45833482E-03 -1.05639209E-02
 -3.44589131E-17 -1.24991765E-02 -1.66403054E-02  5.26191517E-16 -2.25119169E-02
  6.30816287E-04  1.57323718E-15 -3.64810717E-03 -3.25989083E-03  1.90450426E-03
 -2.82260469E-03 -2.54290446E-16 -5.66636411E-03  4.62201748E-16  4.22030965E-03
  4.59903393E-03  1.07794567E-03  2.73347365E-16 -2.84577848E-03  6.10817390E-16
  4.23418436E-03  1.74761604E-01  5.13765622E-02  2.54064416E-01  1.23450631E-01
  2.01243025E-16  4.71863800E-15  3.22115017E-01 -3.42395011E-14 -9.79389037E-17
  3.59004225E-01 -4.85122536E-13  2.91211631E-15  2.27440504E-01  2.02582858E-13
  1.50023576E-15  8.71003132E-03 -4.21161695E-04  5.84344615E-03 -5.35351174E-03
 -3.65135582E-17 -4.72828120E-16  4.51028766E-17  5.71677887E-03  1.21341285E-02
 -1.58829049E-02  1.27360364E-16  3.20892233E-14 -2.96969061E-16  1.29095939E-03
 -6.49445805E-04 -1.09115509E-02 -5.03791635E-16  2.27672624E-13 -7.16397004E-16
 -8.26636224E-15  2.37857609E-15  1.75403711E-02 -2.41434054E-15  1.08910621E-15
  1.02572852E-02  1.48816609E-15  1.09267699E-15  5.09592058E-03  1.15088854E-16
  6.41376156E-15  1.81624553E-15  2.08253254E-02  9.05660590E-15  1.07017363E-15
  8.66664180E-03 -1.85786883E-14  1.04831995E-15  6.67517155E-03 -5.06985957E-17
 -8.34108841E-02 -1.25777518E-01 -9.71741046E-02 -2.84507935E-03  9.55569651E-03
  2.01424998E-16  2.26200077E-03  1.98348298E-02 -3.45954387E-16  6.21363600E-03
  7.47132339E-03  5.06934442E-16  8.34350111E-03 -3.62847611E-03  7.97571138E-04
  1.78804251E-03 -1.16099935E-17  8.54233333E-04  2.59392423E-17  2.83061266E-03
  6.77467757E-03  7.52584712E-03  2.39916716E-16 -1.18109121E-03 -7.65583600E-17
 -8.34108841E-02 -1.25777518E-01 -9.71741046E-02 -2.84507935E-03 -9.55569651E-03
  1.85630789E-16  2.26200077E-03 -1.98348298E-02 -5.54409491E-16  6.21363600E-03
 -7.47132339E-03 -1.22069612E-15  8.34350111E-03 -3.62847611E-03  7.97571138E-04
  1.78804251E-03  1.27675145E-17 -8.54233333E-04  5.65092172E-17  2.83061265E-03
  6.77467757E-03  7.52584712E-03 -6.41322188E-16  1.18109121E-03 -3.23171513E-16
  4.64656509E-16 -1.78647718E-16 -5.72342047E-15  1.83851777E-13  1.40186744E-13
 -8.84819152E-16  3.61910299E-01 -2.39113913E-15  6.42031873E-15  4.17906224E-01
 -2.05038449E-14 -1.31798858E-14  2.97198754E-01 -4.82830378E-14  1.63051109E-15
  3.64935050E-02 -2.07787560E-14 -1.49461781E-15 -3.53834269E-16 -1.04164715E-15
 -1.11263563E-15 -1.06770660E-17 -5.37937824E-03  1.87625240E-15 -1.35588152E-14
 -2.83920299E-15  5.75252738E-15  9.54969981E-16 -1.60401163E-02  6.41447016E-15
 -1.79605739E-14  1.61807817E-15  4.37684244E-14  4.58734726E-15 -7.03856781E-03
 -1.47450338E-15  1.41249129E-02  3.83379941E-16 -6.70293422E-16  1.15550457E-02
 -4.39071336E-16 -3.49356943E-16  9.16852159E-03  1.13803346E-16  9.99602366E-16
  3.16110955E-15  2.26348774E-02 -1.04648014E-14  1.42709532E-15  1.44311027E-02
 -1.03884185E-14 -5.14661551E-16  1.28665549E-02 -2.32402129E-15 -9.19630744E-15
  2.00711117E-15 -6.25624411E-14 -9.50243041E-14 -3.44063196E-15  4.72231835E-16
  1.07735045E-02 -1.19263756E-15  2.83536792E-14  2.44647170E-02 -1.84079401E-14
  1.13387607E-14  2.11524576E-02 -1.43617892E-14 -1.62172686E-16  1.34986939E-15
 -3.53026238E-16 -3.30638668E-03  1.65607701E-15  2.34225524E-03  4.82132484E-15
  1.19852555E-14  8.42162739E-15 -3.46550634E-03  5.21830207E-15  2.09199372E-03
  9.95905318E-16 -7.54821113E-14 -1.11278754E-13 -8.28526551E-15 -8.07531927E-16
  1.07735045E-02 -8.28683630E-16 -2.91547462E-14  2.44647170E-02 -1.33721340E-14
 -2.46280095E-14  2.11524576E-02 -1.17831795E-14 -1.23089240E-15  1.27176503E-15
  9.15450585E-16  3.30638668E-03 -1.65118429E-15  2.34225524E-03 -4.69725625E-16
  7.16466787E-15  7.73131831E-15  3.46550634E-03  3.03891568E-17  2.09199372E-03
 -4.16045286E-03  5.24334341E-02 -1.47551104E-02  8.25572817E-01  2.44471000E+00
  3.36367564E-14 -1.33710165E-16 -2.62536366E-02 -1.47374354E-12  1.14190389E-15
 -8.86742866E-02 -2.71882078E-11 -7.60809611E-17 -2.39149196E-01  1.48157206E-11
  3.59718839E-16 -2.11538205E-01 -4.33658882E-03 -3.31822750E-03 -3.59880020E-03
 -8.12387254E-17 -2.84878831E-14 -7.22608322E-17 -1.32281813E-02 -5.79148247E-02
 -3.00747769E-02 -1.10465917E-16  1.59107507E-12 -3.13557631E-16 -6.38710714E-02
 -1.09162712E-01 -9.87922028E-02  1.06278434E-16  1.37521674E-11 -1.34903583E-16
 -2.23032005E-13 -5.16988111E-16  4.36804876E-03 -1.11532341E-13 -4.16497813E-17
 -2.07804148E-03 -7.89150649E-14 -2.48136441E-16  2.99958171E-03 -7.09789038E-17
 -1.25388862E-12 -9.50246750E-17 -2.51716377E-03  4.21408246E-13  1.31948208E-16
 -8.96640473E-03 -1.20633508E-12  2.09915449E-16 -6.14128031E-05  6.19327669E-17
 -2.63099661E-03 -1.60646686E-01 -9.36229929E-01 -8.63650026E-01 -1.01037903E-03
 -1.03186192E-16 -1.06790226E-04  8.28371724E-02 -2.96488408E-16 -6.11355757E-02
  2.07405392E-01 -8.19712012E-17 -1.70597210E-01 -4.46432687E-03  2.24382664E-03
 -2.43032928E-03  3.38060849E-16  6.55648394E-03  2.05572231E-17 -8.96718087E-03
  3.93346664E-02  1.54130128E-02 -3.66390981E-17  3.86169425E-02 -8.52846296E-17
 -2.63099661E-03 -1.60646686E-01 -9.36229929E-01 -8.63650026E-01  1.01037903E-03
 -8.67413873E-17 -1.06790226E-04 -8.28371724E-02 -3.98934737E-16 -6.11355757E-02
 -2.07405392E-01  1.25431054E-16 -1.70597210E-01 -4.46432687E-03  2.24382664E-03
 -2.43032928E-03 -3.13898044E-16 -6.55648394E-03 -2.93200704E-16 -8.96718088E-03
  3.93346664E-02  1.54130128E-02 -5.53235478E-17 -3.86169425E-02  6.67275005E-17
 -1.74466049E-13 -1.04264178E-14 -2.35977277E-12  3.56992441E-12 -1.35160037E-10
 -2.88054474E-02 -1.15259418E-16 -4.70020395E-13 -8.62653950E-02 -2.82046969E-16
  1.19708737E-12 -4.26734768E-01  1.50527021E-15 -2.24402333E-12 -1.23032302E+00
  8.55282484E-16  2.87599051E-11 -2.48336844E-13 -4.31164582E-13 -3.13189317E-13
 -2.67266349E-16 -3.99462578E-04 -1.79994521E-16 -3.50415401E-12 -2.72946156E-12
 -3.18489519E-12  6.10982519E-16  3.09179861E-02  4.11986355E-18  2.62325095E-12
 -3.36227424E-12 -8.80461922E-13  4.39505407E-16  7.35130080E-02 -1.36967207E-16
  1.22500403E-04 -1.13146786E-17 -3.32096100E-13  8.19357029E-04 -3.08982089E-17
 -1.33754885E-13 -1.49053216E-03  6.38072882E-17 -1.82461194E-13 -2.52304525E-16
 -2.41089275E-02 -1.96208558E-16  1.24193744E-13  1.64814446E-03 -4.11377113E-16
  1.61121171E-13 -6.60203651E-03 -3.46178618E-16  2.69919334E-13 -1.14666538E-16
 -1.04176405E-02  1.45467305E-01  1.59404095E+00  3.37697844E+00 -7.88913617E-04
 -5.16248326E-17 -5.32554661E-04 -6.47176754E-02 -4.63060839E-16  6.71298492E-02
 -2.97103607E-01 -1.39049886E-15  3.31163279E-01  6.13741251E-04 -5.37840157E-03
 -2.71206669E-03  8.31591838E-17 -4.27740611E-03 -6.15098046E-17 -4.29406176E-02
 -5.96775399E-02 -2.28035455E-02  4.39632884E-16 -4.20533379E-02 -3.43484308E-16
  1.04176405E-02 -1.45467305E-01 -1.59404095E+00 -3.37697844E+00 -7.88913617E-04
  1.31313470E-16  5.32554661E-04 -6.47176754E-02  5.93013269E-16 -6.71298492E-02
 -2.97103607E-01 -4.72201753E-16 -3.31163279E-01 -6.13741253E-04  5.37840157E-03
  2.71206669E-03  2.48388564E-16 -4.27740611E-03  1.93384815E-16  4.29406175E-02
  5.96775399E-02  2.28035454E-02  4.38636169E-17 -4.20533379E-02  7.18774994E-17
  1.75413758E-02  9.73366121E-03  3.78904147E-02  1.86385218E+00  9.07944228E+00
 -1.51634669E-12  1.91316201E-17  7.90633533E-02 -6.68566998E-12 -6.14972803E-16
 -3.39910709E-02 -1.12441527E-10  8.65787591E-16 -4.43069338E-01  1.33820263E-10
  9.55630606E-15 -2.67479045E+00 -1.75855120E-03  7.53751833E-03  6.70595088E-04
  2.26643749E-17  9.22300841E-15 -2.06991132E-17  1.20105203E-01  1.44542684E-02
  6.98384989E-02 -1.44582823E-16  5.96739043E-12  1.62625444E-16  2.21389731E-01
  6.46387324E-02  3.17010524E-01  5.48860055E-16  6.42648043E-11 -1.91467015E-15
 -1.32379304E-12  5.73166999E-16  1.51546625E-03 -6.33109014E-13 -9.58694471E-18
  5.25081838E-04 -4.06512199E-13 -1.72732950E-17 -8.34811741E-04  5.35741155E-17
 -6.61318142E-12  6.76484221E-16 -9.93507735E-02  1.01337004E-12  7.24443123E-16
 -9.52472476E-02 -6.13145693E-12  7.75492584E-16 -2.58640986E-02 -1.03576874E-16
  1.84977779E-02 -8.62724903E-03 -5.86667503E+00 -6.70194047E-01  6.99074591E-03
  1.97182727E-17 -8.63153821E-03  2.66524817E-01 -1.00632972E-15 -1.23142383E-01
  1.05485005E+00 -6.45309488E-15 -5.84540458E-01  9.44451413E-03  1.90496792E-02
  1.28137729E-02  2.74776226E-18  5.50555795E-03 -5.37438289E-17  2.23089733E-01
  3.67087191E-01  3.72625339E-01  6.50634703E-16  7.32370086E-02 -2.29607407E-16
  1.84977779E-02 -8.62724937E-03 -5.86667503E+00 -6.70194047E-01 -6.99074591E-03
 -1.71248667E-16 -8.63153821E-03 -2.66524818E-01 -3.65535174E-16 -1.23142383E-01
 -1.05485005E+00 -2.84568807E-15 -5.84540457E-01  9.44451413E-03  1.90496792E-02
  1.28137729E-02  6.61668103E-17 -5.50555795E-03  8.92904081E-17  2.23089733E-01
  3.67087190E-01  3.72625339E-01 -8.87986753E-16 -7.32370086E-02 -4.43324259E-16
 -6.85528197E-16 -2.33492399E-15 -1.35644045E-15  5.07913268E-14  2.02667659E-15
 -1.56623573E-16 -6.53336958E-02 -1.31076730E-16 -5.50719762E-16 -9.42676122E-02
 -5.19327160E-15 -1.08470365E-14 -1.98107001E-01 -1.02875827E-14  2.73081153E-14
  1.82510659E+00  1.48282485E-14  7.13705161E-18  1.69012407E-16  5.11889829E-17
 -5.46818085E-15  3.94204343E-17  1.24590894E-04  1.66292330E-15 -2.97576543E-15
 -1.26054667E-16  5.39115267E-14  4.99900740E-16  8.39350565E-03 -3.88648823E-15
 -7.04942591E-15 -3.31126933E-15  2.94069365E-13  6.22761993E-15 -2.12518296E-01
  1.01861364E-16  3.28925475E-02 -2.48078740E-17  4.72946135E-17  9.55899199E-03
 -3.08955388E-16  8.42576773E-17  1.07639943E-02 -2.72759136E-17  4.67316550E-15
  6.91753050E-16  1.38120184E-01 -3.61695834E-15  5.39690964E-16  9.82984479E-02
 -2.55647769E-15 -3.84609009E-16  8.68533313E-02 -1.03590481E-15 -7.39012810E-14
  9.34393831E-17 -4.22532456E-15 -4.11388830E-14 -2.05100459E-14  1.84212752E-16
 -3.85955443E-05 -2.37636754E-16  7.70645905E-15 -8.53441142E-02 -4.55631714E-15
  1.35094566E-14 -5.22769021E-01 -1.03132144E-14 -3.24886239E-16  9.94595247E-17
 -1.74693246E-16  3.51612708E-03  3.91943644E-16 -2.16392892E-03  1.12783099E-15
  5.61276043E-15  2.73933409E-15  9.58204781E-02  3.38559204E-15 -5.67641851E-02
 -9.34299552E-16 -4.12664063E-14  7.19625952E-14  1.22671166E-14 -2.30196459E-16
 -3.85955443E-05 -2.43595858E-16 -1.08640548E-14 -8.53441142E-02 -5.37717973E-15
  1.35785948E-15 -5.22769021E-01  3.62597342E-15 -1.19675031E-15 -3.81481169E-16
 -8.18218244E-16 -3.51612708E-03 -6.42100234E-16 -2.16392892E-03 -1.07539692E-14
 -8.44994220E-15 -7.19192450E-15 -9.58204781E-02 -6.25794653E-16 -5.67641851E-02
 -1.29539967E-02 -1.59583527E-01 -1.21517237E-01  2.05501432E+00  2.88816635E+00
 -3.74345416E-13  1.33765715E-15  4.17884296E-02 -4.93893348E-13 -2.21955345E-15
 -8.14404104E-02 -3.42762247E-11 -5.00583202E-15 -6.04497922E-01  4.30506170E-11
 -1.88428743E-14  9.27307981E-01 -8.23801568E-03 -1.06945002E-02 -1.19417102E-02
  1.35242228E-16  3.05924214E-14  2.11839086E-16 -3.06352190E-02 -1.41035359E-01
 -7.55754248E-02  3.05742349E-18  1.12509286E-12 -1.52607010E-16 -3.04394541E-02
 -2.02915851E-01 -2.46347908E-01  1.48064925E-15  1.61929142E-11  3.70995630E-15
 -2.01443768E-13  1.38276159E-15  1.97663709E-02 -1.44048259E-13  2.62029808E-16
 -1.25643614E-03 -1.60089908E-14  5.14330511E-16  1.12653366E-02  7.30021475E-17
  3.95328671E-13  6.12229297E-16  3.75525476E-02  1.19921044E-12 -1.21279753E-16
  1.00840775E-02 -5.78301782E-13 -2.05532126E-16  1.37382426E-02 -2.33738088E-16
  5.31259381E-03 -8.59503637E-01  3.40954510E-01 -7.68251040E-01  9.16933186E-03
  4.57422149E-17 -3.16722732E-03  2.58848279E-01  1.27648238E-15 -2.06174152E-01
  6.90022930E-01  6.20538439E-15 -7.01443563E-01 -2.85762451E-02 -7.04281422E-03